<?xml version="1.0" encoding="UTF-8"?>

<!-- generated on 11/20/21 21:44:57 by Eclipse SUMO GUI Version 1.8.0
<configuration xmlns:xsi="http://www.w3.org/2001/XMLSchema-instance" xsi:noNamespaceSchemaLocation="http://sumo.dlr.de/xsd/sumoConfiguration.xsd">

    <input>
        <net-file value="sumo-cross\cross.net.xml"/>
        <route-files value="sumo-cross\routes1.rou.xml"/>
    </input>

    <output>
        <tripinfo-output value="sumo-cross/tripinfo2_TEST.xml"/>
        <statistic-output value="sumo-cross\output.xml"/>
    </output>

    <time>
        <begin value="0"/>
        <end value="20000"/>
    </time>

    <report>
        <verbose value="true"/>
        <duration-log.statistics value="true"/>
    </report>

    <traci_server>
        <remote-port value="56514"/>
    </traci_server>

    <gui_only>
        <gui-settings-file value="sumo-cross\gui-settings2.cfg"/>
        <quit-on-end value="true"/>
        <start value="true"/>
    </gui_only>

</configuration>
-->

<tripinfos xmlns:xsi="http://www.w3.org/2001/XMLSchema-instance" xsi:noNamespaceSchemaLocation="http://sumo.dlr.de/xsd/tripinfo_file.xsd">
    <tripinfo id="xiaokeche_11_.0" depart="0.00" departLane="x1_1" departPos="4.10" departSpeed="0.00" departDelay="0.00" arrival="25.00" arrivalLane="-y1_0" arrivalPos="96.00" arrivalSpeed="13.82" duration="25.00" routeLength="271.39" waitingTime="0.00" waitingCount="0" stopTime="0.00" timeLoss="4.78" rerouteNo="1" devices="tripinfo_xiaokeche_11_.0 routing_xiaokeche_11_.0" vType="xiaokeche" speedFactor="1.01" vaporized=""/>
    <tripinfo id="xiaokeche_8_.0" depart="0.00" departLane="s1_1" departPos="4.10" departSpeed="0.00" departDelay="0.00" arrival="26.00" arrivalLane="-x1_0" arrivalPos="96.00" arrivalSpeed="12.30" duration="26.00" routeLength="296.87" waitingTime="0.00" waitingCount="0" stopTime="0.00" timeLoss="3.55" rerouteNo="1" devices="tripinfo_xiaokeche_8_.0 routing_xiaokeche_8_.0" vType="xiaokeche" speedFactor="0.97" vaporized=""/>
    <tripinfo id="xiaokeche_9_.0" depart="0.00" departLane="x1_3" departPos="4.10" departSpeed="0.00" departDelay="0.00" arrival="27.00" arrivalLane="-s1_2" arrivalPos="96.00" arrivalSpeed="12.77" duration="27.00" routeLength="296.95" waitingTime="0.00" waitingCount="0" stopTime="0.00" timeLoss="3.74" rerouteNo="1" devices="tripinfo_xiaokeche_9_.0 routing_xiaokeche_9_.0" vType="xiaokeche" speedFactor="0.93" vaporized=""/>
    <tripinfo id="xiaokeche_3_.0" depart="0.00" departLane="y1_3" departPos="4.10" departSpeed="0.00" departDelay="0.00" arrival="29.00" arrivalLane="-s1_0" arrivalPos="96.00" arrivalSpeed="14.21" duration="29.00" routeLength="271.71" waitingTime="1.00" waitingCount="1" stopTime="0.00" timeLoss="9.63" rerouteNo="1" devices="tripinfo_xiaokeche_3_.0 routing_xiaokeche_3_.0" vType="xiaokeche" speedFactor="1.04" vaporized=""/>
    <tripinfo id="xiaokeche_7_.0" depart="0.00" departLane="s1_2" departPos="4.10" departSpeed="0.00" departDelay="0.00" arrival="33.00" arrivalLane="-z1_0" arrivalPos="143.14" arrivalSpeed="12.39" duration="33.00" routeLength="318.85" waitingTime="0.00" waitingCount="0" stopTime="0.00" timeLoss="7.06" rerouteNo="1" devices="tripinfo_xiaokeche_7_.0 routing_xiaokeche_7_.0" vType="xiaokeche" speedFactor="0.94" vaporized=""/>
    <tripinfo id="xiaokeche_9_.1" depart="8.00" departLane="x1_3" departPos="4.10" departSpeed="0.00" departDelay="0.80" arrival="33.00" arrivalLane="-s1_2" arrivalPos="96.00" arrivalSpeed="12.66" duration="25.00" routeLength="296.95" waitingTime="0.00" waitingCount="0" stopTime="0.00" timeLoss="3.73" rerouteNo="1" devices="tripinfo_xiaokeche_9_.1 routing_xiaokeche_9_.1" vType="xiaokeche" speedFactor="1.01" vaporized=""/>
    <tripinfo id="xiaokeche_10_.0" depart="3.00" departLane="x1_3" departPos="4.10" departSpeed="0.00" departDelay="3.00" arrival="34.00" arrivalLane="-z1_1" arrivalPos="143.14" arrivalSpeed="14.09" duration="31.00" routeLength="341.41" waitingTime="0.00" waitingCount="0" stopTime="0.00" timeLoss="6.93" rerouteNo="1" devices="tripinfo_xiaokeche_10_.0 routing_xiaokeche_10_.0" vType="xiaokeche" speedFactor="1.05" vaporized=""/>
    <tripinfo id="xiaokeche_11_.1" depart="8.00" departLane="x1_2" departPos="4.10" departSpeed="0.00" departDelay="0.80" arrival="34.00" arrivalLane="-y1_0" arrivalPos="96.00" arrivalSpeed="12.81" duration="26.00" routeLength="271.39" waitingTime="0.00" waitingCount="0" stopTime="0.00" timeLoss="4.05" rerouteNo="1" devices="tripinfo_xiaokeche_11_.1 routing_xiaokeche_11_.1" vType="xiaokeche" speedFactor="0.94" vaporized=""/>
    <tripinfo id="xiaokeche_8_.1" depart="9.00" departLane="s1_3" departPos="4.10" departSpeed="0.00" departDelay="1.80" arrival="35.00" arrivalLane="-x1_3" arrivalPos="96.00" arrivalSpeed="12.94" duration="26.00" routeLength="296.87" waitingTime="0.00" waitingCount="0" stopTime="0.00" timeLoss="4.53" rerouteNo="1" devices="tripinfo_xiaokeche_8_.1 routing_xiaokeche_8_.1" vType="xiaokeche" speedFactor="1.01" vaporized=""/>
    <tripinfo id="xiaokeche_2_.0" depart="0.00" departLane="z1_3" departPos="4.10" departSpeed="0.00" departDelay="0.00" arrival="37.00" arrivalLane="-x1_0" arrivalPos="96.00" arrivalSpeed="13.45" duration="37.00" routeLength="318.45" waitingTime="2.00" waitingCount="1" stopTime="0.00" timeLoss="12.87" rerouteNo="1" devices="tripinfo_xiaokeche_2_.0 routing_xiaokeche_2_.0" vType="xiaokeche" speedFactor="1.01" vaporized=""/>
    <tripinfo id="xiaokeche_7_.1" depart="8.00" departLane="s1_2" departPos="4.10" departSpeed="0.00" departDelay="0.80" arrival="39.00" arrivalLane="-z1_0" arrivalPos="143.14" arrivalSpeed="14.24" duration="31.00" routeLength="318.85" waitingTime="1.00" waitingCount="1" stopTime="0.00" timeLoss="8.44" rerouteNo="1" devices="tripinfo_xiaokeche_7_.1 routing_xiaokeche_7_.1" vType="xiaokeche" speedFactor="1.08" vaporized=""/>
    <tripinfo id="xiaokeche_9_.2" depart="15.00" departLane="x1_3" departPos="4.10" departSpeed="0.00" departDelay="0.60" arrival="39.00" arrivalLane="-s1_2" arrivalPos="96.00" arrivalSpeed="15.08" duration="24.00" routeLength="296.95" waitingTime="0.00" waitingCount="0" stopTime="0.00" timeLoss="3.66" rerouteNo="1" devices="tripinfo_xiaokeche_9_.2 routing_xiaokeche_9_.2" vType="xiaokeche" speedFactor="1.09" vaporized=""/>
    <tripinfo id="xiaokeche_11_.2" depart="15.00" departLane="x1_2" departPos="4.10" departSpeed="0.00" departDelay="0.60" arrival="40.00" arrivalLane="-y1_0" arrivalPos="96.00" arrivalSpeed="13.61" duration="25.00" routeLength="271.39" waitingTime="0.00" waitingCount="0" stopTime="0.00" timeLoss="4.68" rerouteNo="1" devices="tripinfo_xiaokeche_11_.2 routing_xiaokeche_11_.2" vType="xiaokeche" speedFactor="1.01" vaporized=""/>
    <tripinfo id="xiaokeche_8_.2" depart="15.00" departLane="s1_1" departPos="4.10" departSpeed="0.00" departDelay="0.60" arrival="41.00" arrivalLane="-x1_0" arrivalPos="96.00" arrivalSpeed="12.90" duration="26.00" routeLength="296.87" waitingTime="0.00" waitingCount="0" stopTime="0.00" timeLoss="3.88" rerouteNo="1" devices="tripinfo_xiaokeche_8_.2 routing_xiaokeche_8_.2" vType="xiaokeche" speedFactor="1.00" vaporized=""/>
    <tripinfo id="xiaokeche_3_.1" depart="8.00" departLane="y1_0" departPos="4.10" departSpeed="0.00" departDelay="0.80" arrival="42.00" arrivalLane="-s1_0" arrivalPos="96.00" arrivalSpeed="12.38" duration="34.00" routeLength="271.71" waitingTime="4.00" waitingCount="1" stopTime="0.00" timeLoss="12.38" rerouteNo="1" devices="tripinfo_xiaokeche_3_.1 routing_xiaokeche_3_.1" vType="xiaokeche" speedFactor="0.96" vaporized=""/>
    <tripinfo id="xiaokeche_7_.2" depart="15.00" departLane="s1_0" departPos="4.10" departSpeed="0.00" departDelay="0.60" arrival="42.00" arrivalLane="-z1_0" arrivalPos="143.14" arrivalSpeed="13.95" duration="27.00" routeLength="318.85" waitingTime="0.00" waitingCount="0" stopTime="0.00" timeLoss="5.20" rerouteNo="1" devices="tripinfo_xiaokeche_7_.2 routing_xiaokeche_7_.2" vType="xiaokeche" speedFactor="1.08" vaporized=""/>
    <tripinfo id="xiaokeche_6_.0" depart="0.00" departLane="s1_0" departPos="4.10" departSpeed="0.00" departDelay="0.00" arrival="44.00" arrivalLane="-y1_1" arrivalPos="96.00" arrivalSpeed="13.59" duration="44.00" routeLength="294.59" waitingTime="10.00" waitingCount="2" stopTime="0.00" timeLoss="22.73" rerouteNo="1" devices="tripinfo_xiaokeche_6_.0 routing_xiaokeche_6_.0" vType="xiaokeche" speedFactor="1.02" vaporized=""/>
    <tripinfo id="xiaokeche_2_.1" depart="8.00" departLane="z1_2" departPos="4.10" departSpeed="0.00" departDelay="0.80" arrival="45.00" arrivalLane="-x1_0" arrivalPos="96.00" arrivalSpeed="13.32" duration="37.00" routeLength="318.45" waitingTime="3.00" waitingCount="2" stopTime="0.00" timeLoss="13.17" rerouteNo="1" devices="tripinfo_xiaokeche_2_.1 routing_xiaokeche_2_.1" vType="xiaokeche" speedFactor="1.00" vaporized=""/>
    <tripinfo id="xiaokeche_6_.1" depart="8.00" departLane="s1_0" departPos="4.10" departSpeed="0.00" departDelay="0.80" arrival="46.00" arrivalLane="-y1_1" arrivalPos="96.00" arrivalSpeed="13.25" duration="38.00" routeLength="294.59" waitingTime="7.00" waitingCount="1" stopTime="0.00" timeLoss="15.48" rerouteNo="1" devices="tripinfo_xiaokeche_6_.1 routing_xiaokeche_6_.1" vType="xiaokeche" speedFactor="0.97" vaporized=""/>
    <tripinfo id="xiaokeche_6_.2" depart="15.00" departLane="s1_2" departPos="4.10" departSpeed="0.00" departDelay="0.60" arrival="48.00" arrivalLane="-y1_1" arrivalPos="96.00" arrivalSpeed="13.93" duration="33.00" routeLength="294.59" waitingTime="0.00" waitingCount="0" stopTime="0.00" timeLoss="12.72" rerouteNo="1" devices="tripinfo_xiaokeche_6_.2 routing_xiaokeche_6_.2" vType="xiaokeche" speedFactor="1.09" vaporized=""/>
    <tripinfo id="xiaokeche_3_.2" depart="15.00" departLane="y1_3" departPos="4.10" departSpeed="0.00" departDelay="0.60" arrival="49.00" arrivalLane="-s1_0" arrivalPos="96.00" arrivalSpeed="13.43" duration="34.00" routeLength="271.71" waitingTime="1.00" waitingCount="1" stopTime="0.00" timeLoss="12.64" rerouteNo="1" devices="tripinfo_xiaokeche_3_.2 routing_xiaokeche_3_.2" vType="xiaokeche" speedFactor="0.97" vaporized=""/>
    <tripinfo id="xiaokeche_6_.3" depart="22.00" departLane="s1_2" departPos="4.10" departSpeed="0.00" departDelay="0.40" arrival="50.00" arrivalLane="-y1_1" arrivalPos="96.00" arrivalSpeed="14.09" duration="28.00" routeLength="294.59" waitingTime="0.00" waitingCount="0" stopTime="0.00" timeLoss="6.78" rerouteNo="1" devices="tripinfo_xiaokeche_6_.3 routing_xiaokeche_6_.3" vType="xiaokeche" speedFactor="1.05" vaporized=""/>
    <tripinfo id="xiaokeche_10_.1" depart="8.00" departLane="x1_1" departPos="4.10" departSpeed="0.00" departDelay="0.80" arrival="51.00" arrivalLane="-z1_1" arrivalPos="143.14" arrivalSpeed="12.92" duration="43.00" routeLength="341.41" waitingTime="7.00" waitingCount="2" stopTime="0.00" timeLoss="17.06" rerouteNo="1" devices="tripinfo_xiaokeche_10_.1 routing_xiaokeche_10_.1" vType="xiaokeche" speedFactor="0.99" vaporized=""/>
    <tripinfo id="xiaokeche_2_.2" depart="15.00" departLane="z1_0" departPos="4.10" departSpeed="0.00" departDelay="0.60" arrival="52.00" arrivalLane="-x1_0" arrivalPos="96.00" arrivalSpeed="13.28" duration="37.00" routeLength="318.45" waitingTime="1.00" waitingCount="1" stopTime="0.00" timeLoss="12.22" rerouteNo="1" devices="tripinfo_xiaokeche_2_.2 routing_xiaokeche_2_.2" vType="xiaokeche" speedFactor="0.96" vaporized=""/>
    <tripinfo id="xiaokeche_10_.2" depart="17.00" departLane="x1_0" departPos="4.10" departSpeed="0.00" departDelay="2.60" arrival="52.00" arrivalLane="-z1_1" arrivalPos="143.14" arrivalSpeed="13.70" duration="35.00" routeLength="341.41" waitingTime="1.00" waitingCount="1" stopTime="0.00" timeLoss="10.09" rerouteNo="1" devices="tripinfo_xiaokeche_10_.2 routing_xiaokeche_10_.2" vType="xiaokeche" speedFactor="1.00" vaporized=""/>
    <tripinfo id="xiaokeche_10_.3" depart="22.00" departLane="x1_2" departPos="4.10" departSpeed="0.00" departDelay="0.40" arrival="54.00" arrivalLane="-z1_1" arrivalPos="143.14" arrivalSpeed="13.43" duration="32.00" routeLength="341.41" waitingTime="1.00" waitingCount="1" stopTime="0.00" timeLoss="6.91" rerouteNo="1" devices="tripinfo_xiaokeche_10_.3 routing_xiaokeche_10_.3" vType="xiaokeche" speedFactor="1.00" vaporized=""/>
    <tripinfo id="xiaokeche_3_.3" depart="22.00" departLane="y1_3" departPos="4.10" departSpeed="0.00" departDelay="0.40" arrival="56.00" arrivalLane="-s1_0" arrivalPos="96.00" arrivalSpeed="12.68" duration="34.00" routeLength="271.71" waitingTime="1.00" waitingCount="1" stopTime="0.00" timeLoss="12.17" rerouteNo="1" devices="tripinfo_xiaokeche_3_.3 routing_xiaokeche_3_.3" vType="xiaokeche" speedFactor="0.95" vaporized=""/>
    <tripinfo id="xiaokeche_3_.4" depart="29.00" departLane="y1_1" departPos="4.10" departSpeed="0.00" departDelay="0.20" arrival="57.00" arrivalLane="-s1_0" arrivalPos="96.00" arrivalSpeed="14.34" duration="28.00" routeLength="271.71" waitingTime="0.00" waitingCount="0" stopTime="0.00" timeLoss="9.34" rerouteNo="1" devices="tripinfo_xiaokeche_3_.4 routing_xiaokeche_3_.4" vType="xiaokeche" speedFactor="1.08" vaporized=""/>
    <tripinfo id="xiaokeche_2_.3" depart="24.00" departLane="z1_3" departPos="4.10" departSpeed="0.00" departDelay="2.40" arrival="58.00" arrivalLane="-x1_0" arrivalPos="96.00" arrivalSpeed="14.54" duration="34.00" routeLength="318.45" waitingTime="1.00" waitingCount="1" stopTime="0.00" timeLoss="11.08" rerouteNo="1" devices="tripinfo_xiaokeche_2_.3 routing_xiaokeche_2_.3" vType="xiaokeche" speedFactor="1.05" vaporized=""/>
    <tripinfo id="xiaokeche_1_.1" depart="8.00" departLane="z1_3" departPos="4.10" departSpeed="0.00" departDelay="0.80" arrival="60.00" arrivalLane="-y1_1" arrivalPos="96.00" arrivalSpeed="14.08" duration="52.00" routeLength="344.41" waitingTime="14.00" waitingCount="1" stopTime="0.00" timeLoss="27.97" rerouteNo="1" devices="tripinfo_xiaokeche_1_.1 routing_xiaokeche_1_.1" vType="xiaokeche" speedFactor="1.06" vaporized=""/>
    <tripinfo id="xiaokeche_1_.0" depart="0.00" departLane="z1_1" departPos="4.10" departSpeed="0.00" departDelay="0.00" arrival="61.00" arrivalLane="-y1_0" arrivalPos="96.00" arrivalSpeed="12.36" duration="61.00" routeLength="344.41" waitingTime="24.00" waitingCount="1" stopTime="0.00" timeLoss="34.86" rerouteNo="1" devices="tripinfo_xiaokeche_1_.0 routing_xiaokeche_1_.0" vType="xiaokeche" speedFactor="0.97" vaporized=""/>
    <tripinfo id="xiaokeche_1_.2" depart="15.00" departLane="z1_2" departPos="4.10" departSpeed="0.00" departDelay="0.60" arrival="61.00" arrivalLane="-y1_2" arrivalPos="96.00" arrivalSpeed="12.95" duration="46.00" routeLength="344.41" waitingTime="7.00" waitingCount="1" stopTime="0.00" timeLoss="19.14" rerouteNo="1" devices="tripinfo_xiaokeche_1_.2 routing_xiaokeche_1_.2" vType="xiaokeche" speedFactor="0.94" vaporized=""/>
    <tripinfo id="xiaokeche_2_.4" depart="29.00" departLane="z1_0" departPos="4.10" departSpeed="0.00" departDelay="0.20" arrival="61.00" arrivalLane="-x1_0" arrivalPos="96.00" arrivalSpeed="11.83" duration="32.00" routeLength="318.45" waitingTime="0.00" waitingCount="0" stopTime="0.00" timeLoss="6.25" rerouteNo="1" devices="tripinfo_xiaokeche_2_.4 routing_xiaokeche_2_.4" vType="xiaokeche" speedFactor="0.93" vaporized=""/>
    <tripinfo id="xiaokeche_1_.3" depart="22.00" departLane="z1_2" departPos="4.10" departSpeed="0.00" departDelay="0.40" arrival="62.00" arrivalLane="-y1_1" arrivalPos="96.00" arrivalSpeed="14.76" duration="40.00" routeLength="344.41" waitingTime="6.00" waitingCount="1" stopTime="0.00" timeLoss="16.33" rerouteNo="1" devices="tripinfo_xiaokeche_1_.3 routing_xiaokeche_1_.3" vType="xiaokeche" speedFactor="1.09" vaporized=""/>
    <tripinfo id="xiaokeche_3_.5" depart="36.00" departLane="y1_2" departPos="4.10" departSpeed="0.00" departDelay="0.00" arrival="62.00" arrivalLane="-s1_0" arrivalPos="96.00" arrivalSpeed="12.60" duration="26.00" routeLength="271.71" waitingTime="0.00" waitingCount="0" stopTime="0.00" timeLoss="4.81" rerouteNo="1" devices="tripinfo_xiaokeche_3_.5 routing_xiaokeche_3_.5" vType="xiaokeche" speedFactor="0.99" vaporized=""/>
    <tripinfo id="xiaokeche_1_.4" depart="29.00" departLane="z1_1" departPos="4.10" departSpeed="0.00" departDelay="0.20" arrival="63.00" arrivalLane="-y1_0" arrivalPos="96.00" arrivalSpeed="12.17" duration="34.00" routeLength="344.41" waitingTime="0.00" waitingCount="0" stopTime="0.00" timeLoss="6.73" rerouteNo="1" devices="tripinfo_xiaokeche_1_.4 routing_xiaokeche_1_.4" vType="xiaokeche" speedFactor="0.93" vaporized=""/>
    <tripinfo id="xiaokeche_4_.0" depart="1.00" departLane="y1_1" departPos="4.10" departSpeed="0.00" departDelay="1.00" arrival="64.00" arrivalLane="-z1_0" arrivalPos="143.14" arrivalSpeed="13.81" duration="63.00" routeLength="344.41" waitingTime="28.00" waitingCount="1" stopTime="0.00" timeLoss="38.18" rerouteNo="1" devices="tripinfo_xiaokeche_4_.0 routing_xiaokeche_4_.0" vType="xiaokeche" speedFactor="1.02" vaporized=""/>
    <tripinfo id="xiaokeche_1_.5" depart="36.00" departLane="z1_2" departPos="4.10" departSpeed="0.00" departDelay="0.00" arrival="64.00" arrivalLane="-y1_1" arrivalPos="96.00" arrivalSpeed="13.59" duration="28.00" routeLength="344.41" waitingTime="0.00" waitingCount="0" stopTime="0.00" timeLoss="4.22" rerouteNo="1" devices="tripinfo_xiaokeche_1_.5 routing_xiaokeche_1_.5" vType="xiaokeche" speedFactor="1.06" vaporized=""/>
    <tripinfo id="xiaokeche_4_.1" depart="8.00" departLane="y1_3" departPos="4.10" departSpeed="0.00" departDelay="0.80" arrival="65.00" arrivalLane="-z1_1" arrivalPos="143.14" arrivalSpeed="11.97" duration="57.00" routeLength="344.41" waitingTime="21.00" waitingCount="1" stopTime="0.00" timeLoss="30.02" rerouteNo="1" devices="tripinfo_xiaokeche_4_.1 routing_xiaokeche_4_.1" vType="xiaokeche" speedFactor="0.94" vaporized=""/>
    <tripinfo id="xiaokeche_2_.5" depart="36.00" departLane="z1_1" departPos="4.10" departSpeed="0.00" departDelay="0.00" arrival="65.00" arrivalLane="-x1_0" arrivalPos="96.00" arrivalSpeed="13.78" duration="29.00" routeLength="318.45" waitingTime="0.00" waitingCount="0" stopTime="0.00" timeLoss="5.45" rerouteNo="1" devices="tripinfo_xiaokeche_2_.5 routing_xiaokeche_2_.5" vType="xiaokeche" speedFactor="1.01" vaporized=""/>
    <tripinfo id="xiaokeche_4_.2" depart="18.00" departLane="y1_1" departPos="4.10" departSpeed="0.00" departDelay="3.60" arrival="66.00" arrivalLane="-z1_0" arrivalPos="143.14" arrivalSpeed="13.93" duration="48.00" routeLength="344.41" waitingTime="13.00" waitingCount="1" stopTime="0.00" timeLoss="24.03" rerouteNo="1" devices="tripinfo_xiaokeche_4_.2 routing_xiaokeche_4_.2" vType="xiaokeche" speedFactor="1.07" vaporized=""/>
    <tripinfo id="xiaokeche_4_.4" depart="30.00" departLane="y1_2" departPos="4.10" departSpeed="0.00" departDelay="1.20" arrival="66.00" arrivalLane="-z1_1" arrivalPos="143.14" arrivalSpeed="13.94" duration="36.00" routeLength="344.41" waitingTime="1.00" waitingCount="1" stopTime="0.00" timeLoss="11.31" rerouteNo="1" devices="tripinfo_xiaokeche_4_.4 routing_xiaokeche_4_.4" vType="xiaokeche" speedFactor="1.01" vaporized=""/>
    <tripinfo id="xiaokeche_11_.3" depart="22.00" departLane="x1_1" departPos="4.10" departSpeed="0.00" departDelay="0.40" arrival="67.00" arrivalLane="-y1_0" arrivalPos="96.00" arrivalSpeed="12.66" duration="45.00" routeLength="271.39" waitingTime="14.00" waitingCount="2" stopTime="0.00" timeLoss="23.73" rerouteNo="1" devices="tripinfo_xiaokeche_11_.3 routing_xiaokeche_11_.3" vType="xiaokeche" speedFactor="0.95" vaporized=""/>
    <tripinfo id="xiaokeche_4_.3" depart="22.00" departLane="y1_1" departPos="4.10" departSpeed="0.00" departDelay="0.40" arrival="68.00" arrivalLane="-z1_0" arrivalPos="143.14" arrivalSpeed="13.47" duration="46.00" routeLength="344.41" waitingTime="10.00" waitingCount="1" stopTime="0.00" timeLoss="20.76" rerouteNo="1" devices="tripinfo_xiaokeche_4_.3 routing_xiaokeche_4_.3" vType="xiaokeche" speedFactor="1.02" vaporized=""/>
</tripinfos>
