<?xml version="1.0" encoding="UTF-8"?>

<!-- generated on 12/08/21 16:15:41 by Eclipse SUMO GUI Version 1.8.0
<configuration xmlns:xsi="http://www.w3.org/2001/XMLSchema-instance" xsi:noNamespaceSchemaLocation="http://sumo.dlr.de/xsd/sumoConfiguration.xsd">

    <input>
        <net-file value="sumo-cross\cross.net.xml"/>
        <route-files value="sumo-cross\routes1.rou.xml"/>
    </input>

    <output>
        <tripinfo-output value="sumo-cross/tripinfo2_TEST.xml"/>
        <statistic-output value="sumo-cross\output.xml"/>
    </output>

    <time>
        <begin value="0"/>
        <end value="20000"/>
    </time>

    <report>
        <verbose value="true"/>
        <duration-log.statistics value="true"/>
    </report>

    <traci_server>
        <remote-port value="54352"/>
    </traci_server>

    <gui_only>
        <gui-settings-file value="sumo-cross\gui-settings2.cfg"/>
        <quit-on-end value="true"/>
        <start value="true"/>
    </gui_only>

</configuration>
-->

<tripinfos xmlns:xsi="http://www.w3.org/2001/XMLSchema-instance" xsi:noNamespaceSchemaLocation="http://sumo.dlr.de/xsd/tripinfo_file.xsd">
    <tripinfo id="xiaokeche_11_.0" depart="0.00" departLane="x1_1" departPos="4.10" departSpeed="0.00" departDelay="0.00" arrival="25.00" arrivalLane="-y1_0" arrivalPos="96.00" arrivalSpeed="13.82" duration="25.00" routeLength="271.39" waitingTime="0.00" waitingCount="0" stopTime="0.00" timeLoss="4.78" rerouteNo="1" devices="tripinfo_xiaokeche_11_.0 routing_xiaokeche_11_.0" vType="xiaokeche" speedFactor="1.01" vaporized=""/>
    <tripinfo id="xiaokeche_8_.0" depart="0.00" departLane="s1_1" departPos="4.10" departSpeed="0.00" departDelay="0.00" arrival="26.00" arrivalLane="-x1_0" arrivalPos="96.00" arrivalSpeed="12.30" duration="26.00" routeLength="296.87" waitingTime="0.00" waitingCount="0" stopTime="0.00" timeLoss="3.55" rerouteNo="1" devices="tripinfo_xiaokeche_8_.0 routing_xiaokeche_8_.0" vType="xiaokeche" speedFactor="0.97" vaporized=""/>
    <tripinfo id="xiaokeche_9_.0" depart="0.00" departLane="x1_3" departPos="4.10" departSpeed="0.00" departDelay="0.00" arrival="27.00" arrivalLane="-s1_2" arrivalPos="96.00" arrivalSpeed="12.77" duration="27.00" routeLength="296.95" waitingTime="0.00" waitingCount="0" stopTime="0.00" timeLoss="3.74" rerouteNo="1" devices="tripinfo_xiaokeche_9_.0 routing_xiaokeche_9_.0" vType="xiaokeche" speedFactor="0.93" vaporized=""/>
</tripinfos>
