<?xml version="1.0" encoding="UTF-8"?>

<!-- generated on 2022-03-19 20:15:10 by Eclipse SUMO GUI Version 1.10.0
<configuration xmlns:xsi="http://www.w3.org/2001/XMLSchema-instance" xsi:noNamespaceSchemaLocation="http://sumo.dlr.de/xsd/sumoConfiguration.xsd">

    <input>
        <net-file value="sumo-cross\cross.net.xml"/>
        <route-files value="sumo-cross\routes1.rou.xml"/>
    </input>

    <output>
        <tripinfo-output value="sumo-cross/tripinfo2_TEST.xml"/>
        <statistic-output value="sumo-cross\output.xml"/>
    </output>

    <time>
        <begin value="0"/>
        <end value="20000"/>
        <step-length value="0.05"/>
    </time>

    <report>
        <verbose value="true"/>
        <duration-log.statistics value="true"/>
    </report>

    <traci_server>
        <remote-port value="53623"/>
    </traci_server>

    <gui_only>
        <gui-settings-file value="sumo-cross\gui-settings2.cfg"/>
        <quit-on-end value="true"/>
        <start value="true"/>
        <tracker-interval value="0.05"/>
    </gui_only>

</configuration>
-->

<tripinfos xmlns:xsi="http://www.w3.org/2001/XMLSchema-instance" xsi:noNamespaceSchemaLocation="http://sumo.dlr.de/xsd/tripinfo_file.xsd">
    <tripinfo id="xiaokeche_11_.0" depart="0.00" departLane="x1_1" departPos="4.10" departSpeed="0.00" departDelay="0.00" arrival="24.25" arrivalLane="-y1_0" arrivalPos="96.00" arrivalSpeed="13.26" duration="24.25" routeLength="268.07" waitingTime="0.00" waitingCount="0" stopTime="0.00" timeLoss="4.60" rerouteNo="1" devices="tripinfo_xiaokeche_11_.0 routing_xiaokeche_11_.0" vType="xiaokeche" speedFactor="1.01" vaporized=""/>
    <tripinfo id="xiaokeche_5_.0" depart="0.00" departLane="y1_2" departPos="4.10" departSpeed="0.00" departDelay="0.00" arrival="26.00" arrivalLane="-x1_2" arrivalPos="96.00" arrivalSpeed="12.67" duration="26.00" routeLength="285.92" waitingTime="0.00" waitingCount="0" stopTime="0.00" timeLoss="3.48" rerouteNo="1" devices="tripinfo_xiaokeche_5_.0 routing_xiaokeche_5_.0" vType="xiaokeche" speedFactor="0.92" vaporized=""/>
    <tripinfo id="xiaokeche_9_.0" depart="0.00" departLane="x1_3" departPos="4.10" departSpeed="0.00" departDelay="0.00" arrival="26.95" arrivalLane="-s1_2" arrivalPos="96.00" arrivalSpeed="11.94" duration="26.95" routeLength="296.90" waitingTime="0.00" waitingCount="0" stopTime="0.00" timeLoss="3.88" rerouteNo="1" devices="tripinfo_xiaokeche_9_.0 routing_xiaokeche_9_.0" vType="xiaokeche" speedFactor="0.93" vaporized=""/>
    <tripinfo id="xiaokeche_3_.0" depart="0.00" departLane="y1_3" departPos="4.10" departSpeed="0.00" departDelay="0.00" arrival="27.35" arrivalLane="-s1_0" arrivalPos="96.00" arrivalSpeed="14.01" duration="27.35" routeLength="266.86" waitingTime="0.65" waitingCount="1" stopTime="0.00" timeLoss="8.58" rerouteNo="1" devices="tripinfo_xiaokeche_3_.0 routing_xiaokeche_3_.0" vType="xiaokeche" speedFactor="1.04" vaporized=""/>
    <tripinfo id="xiaokeche_0_.0" depart="0.00" departLane="z1_2" departPos="4.10" departSpeed="0.00" departDelay="0.00" arrival="27.45" arrivalLane="-s1_1" arrivalPos="96.00" arrivalSpeed="13.46" duration="27.45" routeLength="330.00" waitingTime="0.00" waitingCount="0" stopTime="0.00" timeLoss="4.32" rerouteNo="1" devices="tripinfo_xiaokeche_0_.0 routing_xiaokeche_0_.0" vType="xiaokeche" speedFactor="1.03" vaporized=""/>
    <tripinfo id="xiaokeche_7_.0" depart="0.00" departLane="s1_2" departPos="4.10" departSpeed="0.00" departDelay="0.00" arrival="29.30" arrivalLane="-z1_0" arrivalPos="143.14" arrivalSpeed="12.15" duration="29.30" routeLength="313.38" waitingTime="0.00" waitingCount="0" stopTime="0.00" timeLoss="5.15" rerouteNo="1" devices="tripinfo_xiaokeche_7_.0 routing_xiaokeche_7_.0" vType="xiaokeche" speedFactor="0.94" vaporized=""/>
    <tripinfo id="xiaokeche_10_.0" depart="0.30" departLane="x1_2" departPos="4.10" departSpeed="0.00" departDelay="0.30" arrival="29.65" arrivalLane="-z1_1" arrivalPos="143.14" arrivalSpeed="14.27" duration="29.35" routeLength="332.71" waitingTime="0.15" waitingCount="1" stopTime="0.00" timeLoss="6.38" rerouteNo="1" devices="tripinfo_xiaokeche_10_.0 routing_xiaokeche_10_.0" vType="xiaokeche" speedFactor="1.05" vaporized=""/>
    <tripinfo id="xiaokeche_1_.0" depart="0.00" departLane="z1_1" departPos="4.10" departSpeed="0.00" departDelay="0.00" arrival="29.80" arrivalLane="-y1_0" arrivalPos="96.00" arrivalSpeed="12.21" duration="29.80" routeLength="344.36" waitingTime="0.00" waitingCount="0" stopTime="0.00" timeLoss="4.19" rerouteNo="1" devices="tripinfo_xiaokeche_1_.0 routing_xiaokeche_1_.0" vType="xiaokeche" speedFactor="0.97" vaporized=""/>
    <tripinfo id="xiaokeche_4_.0" depart="0.05" departLane="y1_1" departPos="4.10" departSpeed="0.00" departDelay="0.05" arrival="31.00" arrivalLane="-z1_0" arrivalPos="143.14" arrivalSpeed="13.03" duration="30.95" routeLength="344.37" waitingTime="0.00" waitingCount="0" stopTime="0.00" timeLoss="6.49" rerouteNo="1" devices="tripinfo_xiaokeche_4_.0 routing_xiaokeche_4_.0" vType="xiaokeche" speedFactor="1.02" vaporized=""/>
    <tripinfo id="xiaokeche_8_.0" depart="0.00" departLane="s1_1" departPos="4.10" departSpeed="0.00" departDelay="0.00" arrival="31.40" arrivalLane="-x1_3" arrivalPos="96.00" arrivalSpeed="12.95" duration="31.40" routeLength="296.82" waitingTime="0.80" waitingCount="1" stopTime="0.00" timeLoss="9.31" rerouteNo="1" devices="tripinfo_xiaokeche_8_.0 routing_xiaokeche_8_.0" vType="xiaokeche" speedFactor="0.97" vaporized=""/>
    <tripinfo id="xiaokeche_2_.0" depart="0.00" departLane="z1_3" departPos="4.10" departSpeed="0.00" departDelay="0.00" arrival="31.60" arrivalLane="-x1_0" arrivalPos="96.00" arrivalSpeed="13.14" duration="31.60" routeLength="314.43" waitingTime="0.00" waitingCount="0" stopTime="0.00" timeLoss="8.56" rerouteNo="1" devices="tripinfo_xiaokeche_2_.0 routing_xiaokeche_2_.0" vType="xiaokeche" speedFactor="1.01" vaporized=""/>
    <tripinfo id="xiaokeche_3_.1" depart="7.20" departLane="y1_0" departPos="4.10" departSpeed="0.00" departDelay="0.00" arrival="31.70" arrivalLane="-s1_0" arrivalPos="96.00" arrivalSpeed="12.80" duration="24.50" routeLength="266.86" waitingTime="0.00" waitingCount="0" stopTime="0.00" timeLoss="4.18" rerouteNo="1" devices="tripinfo_xiaokeche_3_.1 routing_xiaokeche_3_.1" vType="xiaokeche" speedFactor="0.96" vaporized=""/>
    <tripinfo id="xiaokeche_5_.1" depart="7.35" departLane="y1_3" departPos="4.10" departSpeed="0.00" departDelay="0.15" arrival="32.60" arrivalLane="-x1_2" arrivalPos="96.00" arrivalSpeed="12.90" duration="25.25" routeLength="285.92" waitingTime="0.00" waitingCount="0" stopTime="0.00" timeLoss="4.02" rerouteNo="1" devices="tripinfo_xiaokeche_5_.1 routing_xiaokeche_5_.1" vType="xiaokeche" speedFactor="0.97" vaporized=""/>
    <tripinfo id="xiaokeche_6_.1" depart="7.20" departLane="s1_3" departPos="4.10" departSpeed="0.00" departDelay="0.00" arrival="32.70" arrivalLane="-y1_1" arrivalPos="96.00" arrivalSpeed="12.96" duration="25.50" routeLength="284.88" waitingTime="0.00" waitingCount="0" stopTime="0.00" timeLoss="4.29" rerouteNo="1" devices="tripinfo_xiaokeche_6_.1 routing_xiaokeche_6_.1" vType="xiaokeche" speedFactor="0.97" vaporized=""/>
    <tripinfo id="xiaokeche_7_.1" depart="7.20" departLane="s1_1" departPos="4.10" departSpeed="0.00" departDelay="0.00" arrival="32.75" arrivalLane="-z1_0" arrivalPos="143.14" arrivalSpeed="13.97" duration="25.55" routeLength="313.38" waitingTime="0.00" waitingCount="0" stopTime="0.00" timeLoss="4.42" rerouteNo="1" devices="tripinfo_xiaokeche_7_.1 routing_xiaokeche_7_.1" vType="xiaokeche" speedFactor="1.08" vaporized=""/>
    <tripinfo id="xiaokeche_9_.1" depart="7.20" departLane="x1_0" departPos="4.10" departSpeed="0.00" departDelay="0.00" arrival="33.30" arrivalLane="-s1_0" arrivalPos="96.00" arrivalSpeed="13.68" duration="26.10" routeLength="296.90" waitingTime="0.00" waitingCount="0" stopTime="0.00" timeLoss="4.78" rerouteNo="1" devices="tripinfo_xiaokeche_9_.1 routing_xiaokeche_9_.1" vType="xiaokeche" speedFactor="1.01" vaporized=""/>
    <tripinfo id="xiaokeche_1_.1" depart="7.20" departLane="z1_3" departPos="4.10" departSpeed="0.00" departDelay="0.00" arrival="34.90" arrivalLane="-y1_2" arrivalPos="96.00" arrivalSpeed="13.86" duration="27.70" routeLength="344.36" waitingTime="0.00" waitingCount="0" stopTime="0.00" timeLoss="4.29" rerouteNo="1" devices="tripinfo_xiaokeche_1_.1 routing_xiaokeche_1_.1" vType="xiaokeche" speedFactor="1.06" vaporized=""/>
    <tripinfo id="xiaokeche_10_.1" depart="7.20" departLane="x1_3" departPos="4.10" departSpeed="0.00" departDelay="0.00" arrival="35.45" arrivalLane="-z1_1" arrivalPos="143.14" arrivalSpeed="13.34" duration="28.25" routeLength="332.71" waitingTime="0.00" waitingCount="0" stopTime="0.00" timeLoss="3.94" rerouteNo="1" devices="tripinfo_xiaokeche_10_.1 routing_xiaokeche_10_.1" vType="xiaokeche" speedFactor="0.99" vaporized=""/>
    <tripinfo id="xiaokeche_6_.0" depart="0.00" departLane="s1_0" departPos="4.10" departSpeed="0.00" departDelay="0.00" arrival="35.55" arrivalLane="-y1_1" arrivalPos="96.00" arrivalSpeed="13.53" duration="35.55" routeLength="284.88" waitingTime="1.15" waitingCount="2" stopTime="0.00" timeLoss="15.45" rerouteNo="1" devices="tripinfo_xiaokeche_6_.0 routing_xiaokeche_6_.0" vType="xiaokeche" speedFactor="1.02" vaporized=""/>
    <tripinfo id="xiaokeche_0_.1" depart="7.20" departLane="z1_0" departPos="4.10" departSpeed="0.00" departDelay="0.00" arrival="35.85" arrivalLane="-s1_1" arrivalPos="96.00" arrivalSpeed="13.71" duration="28.65" routeLength="330.00" waitingTime="0.00" waitingCount="0" stopTime="0.00" timeLoss="5.41" rerouteNo="1" devices="tripinfo_xiaokeche_0_.1 routing_xiaokeche_0_.1" vType="xiaokeche" speedFactor="1.02" vaporized=""/>
    <tripinfo id="xiaokeche_8_.1" depart="7.20" departLane="s1_2" departPos="4.10" departSpeed="0.00" departDelay="0.00" arrival="36.00" arrivalLane="-x1_2" arrivalPos="96.00" arrivalSpeed="13.96" duration="28.80" routeLength="296.82" waitingTime="0.00" waitingCount="0" stopTime="0.00" timeLoss="7.58" rerouteNo="1" devices="tripinfo_xiaokeche_8_.1 routing_xiaokeche_8_.1" vType="xiaokeche" speedFactor="1.01" vaporized=""/>
    <tripinfo id="xiaokeche_11_.1" depart="7.20" departLane="x1_1" departPos="4.10" departSpeed="0.00" departDelay="0.00" arrival="36.90" arrivalLane="-y1_0" arrivalPos="96.00" arrivalSpeed="12.88" duration="29.70" routeLength="268.07" waitingTime="0.45" waitingCount="1" stopTime="0.00" timeLoss="8.62" rerouteNo="1" devices="tripinfo_xiaokeche_11_.1 routing_xiaokeche_11_.1" vType="xiaokeche" speedFactor="0.94" vaporized=""/>
    <tripinfo id="xiaokeche_2_.1" depart="7.25" departLane="z1_1" departPos="4.10" departSpeed="0.00" departDelay="0.05" arrival="37.05" arrivalLane="-x1_0" arrivalPos="96.00" arrivalSpeed="13.63" duration="29.80" routeLength="314.43" waitingTime="0.50" waitingCount="1" stopTime="0.00" timeLoss="6.55" rerouteNo="1" devices="tripinfo_xiaokeche_2_.1 routing_xiaokeche_2_.1" vType="xiaokeche" speedFactor="1.00" vaporized=""/>
    <tripinfo id="xiaokeche_6_.2" depart="14.40" departLane="s1_3" departPos="4.10" departSpeed="0.00" departDelay="0.00" arrival="37.50" arrivalLane="-y1_1" arrivalPos="96.00" arrivalSpeed="14.23" duration="23.10" routeLength="284.88" waitingTime="0.00" waitingCount="0" stopTime="0.00" timeLoss="4.23" rerouteNo="1" devices="tripinfo_xiaokeche_6_.2 routing_xiaokeche_6_.2" vType="xiaokeche" speedFactor="1.09" vaporized=""/>
    <tripinfo id="xiaokeche_4_.1" depart="7.20" departLane="y1_2" departPos="4.10" departSpeed="0.00" departDelay="0.00" arrival="37.70" arrivalLane="-z1_1" arrivalPos="143.14" arrivalSpeed="12.36" duration="30.50" routeLength="344.37" waitingTime="0.00" waitingCount="0" stopTime="0.00" timeLoss="4.06" rerouteNo="1" devices="tripinfo_xiaokeche_4_.1 routing_xiaokeche_4_.1" vType="xiaokeche" speedFactor="0.94" vaporized=""/>
    <tripinfo id="xiaokeche_9_.2" depart="14.40" departLane="x1_3" departPos="4.10" departSpeed="0.00" departDelay="0.00" arrival="37.85" arrivalLane="-s1_2" arrivalPos="96.00" arrivalSpeed="14.53" duration="23.45" routeLength="296.90" waitingTime="0.00" waitingCount="0" stopTime="0.00" timeLoss="3.72" rerouteNo="1" devices="tripinfo_xiaokeche_9_.2 routing_xiaokeche_9_.2" vType="xiaokeche" speedFactor="1.09" vaporized=""/>
    <tripinfo id="xiaokeche_3_.2" depart="14.40" departLane="y1_0" departPos="4.10" departSpeed="0.00" departDelay="0.00" arrival="38.45" arrivalLane="-s1_0" arrivalPos="96.00" arrivalSpeed="12.98" duration="24.05" routeLength="266.86" waitingTime="0.00" waitingCount="0" stopTime="0.00" timeLoss="3.96" rerouteNo="1" devices="tripinfo_xiaokeche_3_.2 routing_xiaokeche_3_.2" vType="xiaokeche" speedFactor="0.97" vaporized=""/>
    <tripinfo id="xiaokeche_11_.2" depart="14.40" departLane="x1_0" departPos="4.10" departSpeed="0.00" departDelay="0.00" arrival="38.65" arrivalLane="-y1_0" arrivalPos="96.00" arrivalSpeed="13.51" duration="24.25" routeLength="268.07" waitingTime="0.00" waitingCount="0" stopTime="0.00" timeLoss="4.50" rerouteNo="1" devices="tripinfo_xiaokeche_11_.2 routing_xiaokeche_11_.2" vType="xiaokeche" speedFactor="1.01" vaporized=""/>
    <tripinfo id="xiaokeche_5_.2" depart="14.40" departLane="y1_3" departPos="4.10" departSpeed="0.00" departDelay="0.00" arrival="39.75" arrivalLane="-x1_2" arrivalPos="96.00" arrivalSpeed="12.96" duration="25.35" routeLength="285.92" waitingTime="0.00" waitingCount="0" stopTime="0.00" timeLoss="3.99" rerouteNo="1" devices="tripinfo_xiaokeche_5_.2 routing_xiaokeche_5_.2" vType="xiaokeche" speedFactor="0.97" vaporized=""/>
    <tripinfo id="xiaokeche_7_.2" depart="14.40" departLane="s1_2" departPos="4.10" departSpeed="0.00" departDelay="0.00" arrival="39.75" arrivalLane="-z1_0" arrivalPos="143.14" arrivalSpeed="14.49" duration="25.35" routeLength="313.38" waitingTime="0.00" waitingCount="0" stopTime="0.00" timeLoss="4.20" rerouteNo="1" devices="tripinfo_xiaokeche_7_.2 routing_xiaokeche_7_.2" vType="xiaokeche" speedFactor="1.08" vaporized=""/>
    <tripinfo id="xiaokeche_8_.2" depart="14.45" departLane="s1_1" departPos="4.10" departSpeed="0.00" departDelay="0.05" arrival="42.30" arrivalLane="-x1_0" arrivalPos="96.00" arrivalSpeed="13.56" duration="27.85" routeLength="296.82" waitingTime="0.00" waitingCount="0" stopTime="0.00" timeLoss="6.47" rerouteNo="1" devices="tripinfo_xiaokeche_8_.2 routing_xiaokeche_8_.2" vType="xiaokeche" speedFactor="1.00" vaporized=""/>
    <tripinfo id="xiaokeche_4_.2" depart="14.40" departLane="y1_1" departPos="4.10" departSpeed="0.00" departDelay="0.00" arrival="42.50" arrivalLane="-z1_0" arrivalPos="143.14" arrivalSpeed="14.10" duration="28.10" routeLength="344.37" waitingTime="0.00" waitingCount="0" stopTime="0.00" timeLoss="4.79" rerouteNo="1" devices="tripinfo_xiaokeche_4_.2 routing_xiaokeche_4_.2" vType="xiaokeche" speedFactor="1.07" vaporized=""/>
    <tripinfo id="xiaokeche_0_.2" depart="14.40" departLane="z1_3" departPos="4.10" departSpeed="0.00" departDelay="0.00" arrival="44.65" arrivalLane="-s1_1" arrivalPos="96.00" arrivalSpeed="12.59" duration="30.25" routeLength="330.00" waitingTime="0.00" waitingCount="0" stopTime="0.00" timeLoss="4.19" rerouteNo="1" devices="tripinfo_xiaokeche_0_.2 routing_xiaokeche_0_.2" vType="xiaokeche" speedFactor="0.91" vaporized=""/>
    <tripinfo id="xiaokeche_6_.3" depart="21.60" departLane="s1_2" departPos="4.10" departSpeed="0.00" departDelay="0.00" arrival="45.35" arrivalLane="-y1_1" arrivalPos="96.00" arrivalSpeed="13.60" duration="23.75" routeLength="284.88" waitingTime="0.00" waitingCount="0" stopTime="0.00" timeLoss="4.10" rerouteNo="1" devices="tripinfo_xiaokeche_6_.3 routing_xiaokeche_6_.3" vType="xiaokeche" speedFactor="1.05" vaporized=""/>
    <tripinfo id="xiaokeche_9_.3" depart="21.60" departLane="x1_3" departPos="4.10" departSpeed="0.00" departDelay="0.00" arrival="46.10" arrivalLane="-s1_2" arrivalPos="96.00" arrivalSpeed="13.31" duration="24.50" routeLength="296.90" waitingTime="0.00" waitingCount="0" stopTime="0.00" timeLoss="4.00" rerouteNo="1" devices="tripinfo_xiaokeche_9_.3 routing_xiaokeche_9_.3" vType="xiaokeche" speedFactor="1.04" vaporized=""/>
    <tripinfo id="xiaokeche_1_.2" depart="14.40" departLane="z1_0" departPos="4.10" departSpeed="0.00" departDelay="0.00" arrival="46.25" arrivalLane="-y1_0" arrivalPos="96.00" arrivalSpeed="12.86" duration="31.85" routeLength="344.36" waitingTime="0.00" waitingCount="0" stopTime="0.00" timeLoss="5.34" rerouteNo="1" devices="tripinfo_xiaokeche_1_.2 routing_xiaokeche_1_.2" vType="xiaokeche" speedFactor="0.94" vaporized=""/>
    <tripinfo id="xiaokeche_3_.3" depart="21.60" departLane="y1_3" departPos="4.10" departSpeed="0.00" departDelay="0.00" arrival="46.25" arrivalLane="-s1_0" arrivalPos="96.00" arrivalSpeed="12.49" duration="24.65" routeLength="266.86" waitingTime="0.00" waitingCount="0" stopTime="0.00" timeLoss="4.07" rerouteNo="1" devices="tripinfo_xiaokeche_3_.3 routing_xiaokeche_3_.3" vType="xiaokeche" speedFactor="0.95" vaporized=""/>
    <tripinfo id="xiaokeche_10_.2" depart="14.40" departLane="x1_1" departPos="4.10" departSpeed="0.00" departDelay="0.00" arrival="46.50" arrivalLane="-z1_1" arrivalPos="143.14" arrivalSpeed="13.27" duration="32.10" routeLength="332.71" waitingTime="0.65" waitingCount="1" stopTime="0.00" timeLoss="8.03" rerouteNo="1" devices="tripinfo_xiaokeche_10_.2 routing_xiaokeche_10_.2" vType="xiaokeche" speedFactor="1.00" vaporized=""/>
    <tripinfo id="xiaokeche_11_.3" depart="21.60" departLane="x1_1" departPos="4.10" departSpeed="0.00" departDelay="0.00" arrival="47.95" arrivalLane="-y1_0" arrivalPos="96.00" arrivalSpeed="12.40" duration="26.35" routeLength="268.07" waitingTime="0.00" waitingCount="0" stopTime="0.00" timeLoss="5.37" rerouteNo="1" devices="tripinfo_xiaokeche_11_.3 routing_xiaokeche_11_.3" vType="xiaokeche" speedFactor="0.95" vaporized=""/>
    <tripinfo id="xiaokeche_7_.3" depart="21.60" departLane="s1_1" departPos="4.10" departSpeed="0.00" departDelay="0.00" arrival="48.40" arrivalLane="-z1_0" arrivalPos="143.14" arrivalSpeed="13.29" duration="26.80" routeLength="313.38" waitingTime="0.00" waitingCount="0" stopTime="0.00" timeLoss="4.44" rerouteNo="1" devices="tripinfo_xiaokeche_7_.3 routing_xiaokeche_7_.3" vType="xiaokeche" speedFactor="1.02" vaporized=""/>
    <tripinfo id="xiaokeche_2_.2" depart="14.40" departLane="z1_2" departPos="4.10" departSpeed="0.00" departDelay="0.00" arrival="48.60" arrivalLane="-x1_0" arrivalPos="96.00" arrivalSpeed="13.08" duration="34.20" routeLength="314.43" waitingTime="0.45" waitingCount="1" stopTime="0.00" timeLoss="10.07" rerouteNo="1" devices="tripinfo_xiaokeche_2_.2 routing_xiaokeche_2_.2" vType="xiaokeche" speedFactor="0.96" vaporized=""/>
    <tripinfo id="xiaokeche_1_.3" depart="21.60" departLane="z1_2" departPos="4.10" departSpeed="0.00" departDelay="0.00" arrival="48.80" arrivalLane="-y1_1" arrivalPos="96.00" arrivalSpeed="14.21" duration="27.20" routeLength="344.36" waitingTime="0.00" waitingCount="0" stopTime="0.00" timeLoss="4.41" rerouteNo="1" devices="tripinfo_xiaokeche_1_.3 routing_xiaokeche_1_.3" vType="xiaokeche" speedFactor="1.09" vaporized=""/>
    <tripinfo id="xiaokeche_5_.3" depart="21.65" departLane="y1_2" departPos="4.10" departSpeed="0.00" departDelay="0.05" arrival="48.85" arrivalLane="-x1_2" arrivalPos="96.00" arrivalSpeed="13.16" duration="27.20" routeLength="285.92" waitingTime="0.50" waitingCount="1" stopTime="0.00" timeLoss="6.14" rerouteNo="1" devices="tripinfo_xiaokeche_5_.3 routing_xiaokeche_5_.3" vType="xiaokeche" speedFactor="0.98" vaporized=""/>
    <tripinfo id="xiaokeche_8_.3" depart="21.65" departLane="s1_3" departPos="4.10" departSpeed="0.00" departDelay="0.05" arrival="49.05" arrivalLane="-x1_3" arrivalPos="96.00" arrivalSpeed="13.59" duration="27.40" routeLength="296.82" waitingTime="0.05" waitingCount="1" stopTime="0.00" timeLoss="6.45" rerouteNo="1" devices="tripinfo_xiaokeche_8_.3 routing_xiaokeche_8_.3" vType="xiaokeche" speedFactor="1.02" vaporized=""/>
    <tripinfo id="xiaokeche_2_.3" depart="21.65" departLane="z1_1" departPos="4.10" departSpeed="0.00" departDelay="0.05" arrival="50.25" arrivalLane="-x1_0" arrivalPos="96.00" arrivalSpeed="13.78" duration="28.60" routeLength="314.43" waitingTime="0.45" waitingCount="1" stopTime="0.00" timeLoss="6.60" rerouteNo="1" devices="tripinfo_xiaokeche_2_.3 routing_xiaokeche_2_.3" vType="xiaokeche" speedFactor="1.05" vaporized=""/>
    <tripinfo id="xiaokeche_0_.3" depart="21.60" departLane="z1_0" departPos="4.10" departSpeed="0.00" departDelay="0.00" arrival="51.00" arrivalLane="-s1_1" arrivalPos="96.00" arrivalSpeed="12.92" duration="29.40" routeLength="330.00" waitingTime="0.00" waitingCount="0" stopTime="0.00" timeLoss="5.27" rerouteNo="1" devices="tripinfo_xiaokeche_0_.3 routing_xiaokeche_0_.3" vType="xiaokeche" speedFactor="0.99" vaporized=""/>
    <tripinfo id="xiaokeche_3_.4" depart="28.80" departLane="y1_0" departPos="4.10" departSpeed="0.00" departDelay="0.00" arrival="51.35" arrivalLane="-s1_0" arrivalPos="96.00" arrivalSpeed="14.48" duration="22.55" routeLength="266.86" waitingTime="0.00" waitingCount="0" stopTime="0.00" timeLoss="4.51" rerouteNo="1" devices="tripinfo_xiaokeche_3_.4 routing_xiaokeche_3_.4" vType="xiaokeche" speedFactor="1.08" vaporized=""/>
    <tripinfo id="xiaokeche_5_.4" depart="28.85" departLane="y1_2" departPos="4.10" departSpeed="0.00" departDelay="0.05" arrival="52.40" arrivalLane="-x1_2" arrivalPos="96.00" arrivalSpeed="13.87" duration="23.55" routeLength="285.92" waitingTime="0.00" waitingCount="0" stopTime="0.00" timeLoss="3.88" rerouteNo="1" devices="tripinfo_xiaokeche_5_.4 routing_xiaokeche_5_.4" vType="xiaokeche" speedFactor="1.05" vaporized=""/>
    <tripinfo id="xiaokeche_4_.3" depart="21.60" departLane="y1_1" departPos="4.10" departSpeed="0.00" departDelay="0.00" arrival="53.05" arrivalLane="-z1_0" arrivalPos="143.14" arrivalSpeed="13.58" duration="31.45" routeLength="344.37" waitingTime="0.00" waitingCount="0" stopTime="0.00" timeLoss="6.97" rerouteNo="1" devices="tripinfo_xiaokeche_4_.3 routing_xiaokeche_4_.3" vType="xiaokeche" speedFactor="1.02" vaporized=""/>
    <tripinfo id="xiaokeche_6_.4" depart="28.80" departLane="s1_1" departPos="4.10" departSpeed="0.00" departDelay="0.00" arrival="53.35" arrivalLane="-y1_1" arrivalPos="96.00" arrivalSpeed="12.88" duration="24.55" routeLength="284.88" waitingTime="0.00" waitingCount="0" stopTime="0.00" timeLoss="4.02" rerouteNo="1" devices="tripinfo_xiaokeche_6_.4 routing_xiaokeche_6_.4" vType="xiaokeche" speedFactor="1.00" vaporized=""/>
    <tripinfo id="xiaokeche_11_.4" depart="28.85" departLane="x1_2" departPos="4.10" departSpeed="0.00" departDelay="0.05" arrival="53.35" arrivalLane="-y1_0" arrivalPos="96.00" arrivalSpeed="13.02" duration="24.50" routeLength="268.07" waitingTime="0.00" waitingCount="0" stopTime="0.00" timeLoss="4.28" rerouteNo="1" devices="tripinfo_xiaokeche_11_.4 routing_xiaokeche_11_.4" vType="xiaokeche" speedFactor="0.98" vaporized=""/>
    <tripinfo id="xiaokeche_10_.3" depart="21.60" departLane="x1_2" departPos="4.10" departSpeed="0.00" departDelay="0.00" arrival="53.80" arrivalLane="-z1_1" arrivalPos="143.14" arrivalSpeed="13.83" duration="32.20" routeLength="332.71" waitingTime="0.75" waitingCount="1" stopTime="0.00" timeLoss="8.19" rerouteNo="1" devices="tripinfo_xiaokeche_10_.3 routing_xiaokeche_10_.3" vType="xiaokeche" speedFactor="1.00" vaporized=""/>
    <tripinfo id="xiaokeche_7_.4" depart="28.80" departLane="s1_0" departPos="4.10" departSpeed="0.00" departDelay="0.00" arrival="56.20" arrivalLane="-z1_0" arrivalPos="143.14" arrivalSpeed="13.26" duration="27.40" routeLength="313.38" waitingTime="0.00" waitingCount="0" stopTime="0.00" timeLoss="4.58" rerouteNo="1" devices="tripinfo_xiaokeche_7_.4 routing_xiaokeche_7_.4" vType="xiaokeche" speedFactor="1.00" vaporized=""/>
    <tripinfo id="xiaokeche_9_.4" depart="28.80" departLane="x1_3" departPos="4.10" departSpeed="0.00" departDelay="0.00" arrival="56.70" arrivalLane="-s1_2" arrivalPos="96.00" arrivalSpeed="14.59" duration="27.90" routeLength="296.90" waitingTime="0.00" waitingCount="0" stopTime="0.00" timeLoss="7.92" rerouteNo="1" devices="tripinfo_xiaokeche_9_.4 routing_xiaokeche_9_.4" vType="xiaokeche" speedFactor="1.07" vaporized=""/>
    <tripinfo id="xiaokeche_4_.4" depart="28.80" departLane="y1_1" departPos="4.10" departSpeed="0.00" departDelay="0.00" arrival="57.80" arrivalLane="-z1_0" arrivalPos="143.14" arrivalSpeed="13.99" duration="29.00" routeLength="344.37" waitingTime="0.00" waitingCount="0" stopTime="0.00" timeLoss="4.38" rerouteNo="1" devices="tripinfo_xiaokeche_4_.4 routing_xiaokeche_4_.4" vType="xiaokeche" speedFactor="1.01" vaporized=""/>
    <tripinfo id="xiaokeche_8_.4" depart="28.85" departLane="s1_3" departPos="4.10" departSpeed="0.00" departDelay="0.05" arrival="58.10" arrivalLane="-x1_3" arrivalPos="96.00" arrivalSpeed="12.44" duration="29.25" routeLength="296.82" waitingTime="0.00" waitingCount="0" stopTime="0.00" timeLoss="6.72" rerouteNo="1" devices="tripinfo_xiaokeche_8_.4 routing_xiaokeche_8_.4" vType="xiaokeche" speedFactor="0.95" vaporized=""/>
    <tripinfo id="xiaokeche_3_.5" depart="36.00" departLane="y1_1" departPos="4.10" departSpeed="0.00" departDelay="0.00" arrival="59.95" arrivalLane="-s1_0" arrivalPos="96.00" arrivalSpeed="13.07" duration="23.95" routeLength="266.86" waitingTime="0.00" waitingCount="0" stopTime="0.00" timeLoss="4.26" rerouteNo="1" devices="tripinfo_xiaokeche_3_.5 routing_xiaokeche_3_.5" vType="xiaokeche" speedFactor="0.99" vaporized=""/>
    <tripinfo id="xiaokeche_2_.4" depart="28.80" departLane="z1_1" departPos="4.10" departSpeed="0.00" departDelay="0.00" arrival="60.25" arrivalLane="-x1_0" arrivalPos="96.00" arrivalSpeed="12.37" duration="31.45" routeLength="314.43" waitingTime="0.00" waitingCount="0" stopTime="0.00" timeLoss="6.49" rerouteNo="1" devices="tripinfo_xiaokeche_2_.4 routing_xiaokeche_2_.4" vType="xiaokeche" speedFactor="0.93" vaporized=""/>
    <tripinfo id="xiaokeche_11_.5" depart="36.00" departLane="x1_0" departPos="4.10" departSpeed="0.00" departDelay="0.00" arrival="60.45" arrivalLane="-y1_0" arrivalPos="96.00" arrivalSpeed="12.89" duration="24.45" routeLength="268.07" waitingTime="0.00" waitingCount="0" stopTime="0.00" timeLoss="4.23" rerouteNo="1" devices="tripinfo_xiaokeche_11_.5 routing_xiaokeche_11_.5" vType="xiaokeche" speedFactor="0.99" vaporized=""/>
    <tripinfo id="xiaokeche_8_.5" depart="36.00" departLane="s1_3" departPos="4.10" departSpeed="0.00" departDelay="0.00" arrival="60.90" arrivalLane="-x1_3" arrivalPos="96.00" arrivalSpeed="13.89" duration="24.90" routeLength="296.82" waitingTime="0.00" waitingCount="0" stopTime="0.00" timeLoss="3.91" rerouteNo="1" devices="tripinfo_xiaokeche_8_.5 routing_xiaokeche_8_.5" vType="xiaokeche" speedFactor="1.02" vaporized=""/>
    <tripinfo id="xiaokeche_0_.4" depart="28.80" departLane="z1_3" departPos="4.10" departSpeed="0.00" departDelay="0.00" arrival="61.65" arrivalLane="-s1_1" arrivalPos="96.00" arrivalSpeed="12.64" duration="32.85" routeLength="330.00" waitingTime="0.00" waitingCount="0" stopTime="0.00" timeLoss="7.48" rerouteNo="1" devices="tripinfo_xiaokeche_0_.4 routing_xiaokeche_0_.4" vType="xiaokeche" speedFactor="0.94" vaporized=""/>
    <tripinfo id="xiaokeche_5_.5" depart="36.00" departLane="y1_3" departPos="4.10" departSpeed="0.00" departDelay="0.00" arrival="62.10" arrivalLane="-x1_2" arrivalPos="96.00" arrivalSpeed="11.93" duration="26.10" routeLength="285.92" waitingTime="0.00" waitingCount="0" stopTime="0.00" timeLoss="4.17" rerouteNo="1" devices="tripinfo_xiaokeche_5_.5 routing_xiaokeche_5_.5" vType="xiaokeche" speedFactor="0.94" vaporized=""/>
    <tripinfo id="xiaokeche_9_.5" depart="36.00" departLane="x1_2" departPos="4.10" departSpeed="0.00" departDelay="0.00" arrival="62.30" arrivalLane="-s1_2" arrivalPos="96.00" arrivalSpeed="13.77" duration="26.30" routeLength="296.90" waitingTime="0.00" waitingCount="0" stopTime="0.00" timeLoss="5.12" rerouteNo="1" devices="tripinfo_xiaokeche_9_.5 routing_xiaokeche_9_.5" vType="xiaokeche" speedFactor="1.01" vaporized=""/>
    <tripinfo id="xiaokeche_2_.5" depart="36.00" departLane="z1_2" departPos="4.10" departSpeed="0.00" departDelay="0.00" arrival="63.00" arrivalLane="-x1_0" arrivalPos="96.00" arrivalSpeed="13.71" duration="27.00" routeLength="314.43" waitingTime="0.00" waitingCount="0" stopTime="0.00" timeLoss="4.02" rerouteNo="1" devices="tripinfo_xiaokeche_2_.5 routing_xiaokeche_2_.5" vType="xiaokeche" speedFactor="1.01" vaporized=""/>
    <tripinfo id="xiaokeche_1_.4" depart="28.85" departLane="z1_2" departPos="4.10" departSpeed="0.00" departDelay="0.05" arrival="63.15" arrivalLane="-y1_1" arrivalPos="96.00" arrivalSpeed="12.24" duration="34.30" routeLength="344.36" waitingTime="0.00" waitingCount="0" stopTime="0.00" timeLoss="7.44" rerouteNo="1" devices="tripinfo_xiaokeche_1_.4 routing_xiaokeche_1_.4" vType="xiaokeche" speedFactor="0.93" vaporized=""/>
    <tripinfo id="xiaokeche_10_.4" depart="28.80" departLane="x1_0" departPos="4.10" departSpeed="0.00" departDelay="0.00" arrival="63.30" arrivalLane="-z1_1" arrivalPos="143.14" arrivalSpeed="13.43" duration="34.50" routeLength="332.71" waitingTime="1.35" waitingCount="2" stopTime="0.00" timeLoss="10.77" rerouteNo="1" devices="tripinfo_xiaokeche_10_.4 routing_xiaokeche_10_.4" vType="xiaokeche" speedFactor="1.01" vaporized=""/>
    <tripinfo id="xiaokeche_1_.5" depart="36.00" departLane="z1_3" departPos="4.10" departSpeed="0.00" departDelay="0.00" arrival="63.90" arrivalLane="-y1_2" arrivalPos="96.00" arrivalSpeed="13.95" duration="27.90" routeLength="344.36" waitingTime="0.00" waitingCount="0" stopTime="0.00" timeLoss="4.45" rerouteNo="1" devices="tripinfo_xiaokeche_1_.5 routing_xiaokeche_1_.5" vType="xiaokeche" speedFactor="1.06" vaporized=""/>